<?xml version="1.0" encoding="UTF-8"?>

<!-- generated on 2026-01-31T14:13:03.329444-05:00 by Eclipse SUMO sumo v1_25_0+0955-b1df2471f66
<sumoConfiguration xmlns:xsi="http://www.w3.org/2001/XMLSchema-instance" xsi:noNamespaceSchemaLocation="http://sumo.dlr.de/xsd/sumoConfiguration.xsd">

    <input>
        <net-file value="red_osm.net.xml"/>
        <route-files value="rutas_osm.rou.xml"/>
    </input>

    <output>
        <fcd-output value="fcd.xml"/>
        <amitran-output value="trajectories.xml"/>
        <tripinfo-output value="tripinfo.xml"/>
        <edgedata-output value="edgedata.xml"/>
    </output>

    <time>
        <begin value="0"/>
        <end value="600"/>
    </time>

</sumoConfiguration>
-->

<meandata xmlns:xsi="http://www.w3.org/2001/XMLSchema-instance" xsi:noNamespaceSchemaLocation="http://sumo.dlr.de/xsd/meandata_file.xsd">
    <interval begin="0.00" end="600.00" id="DEFAULT_EDGEDATA">
        <edge id="1053072563" sampledSeconds="349.13" traveltime="18.94" overlapTraveltime="19.80" density="5.55" overlapDensity="5.78" laneDensity="5.55" occupancy="2.79" waitingTime="89.00" timeLoss="123.22" speed="5.33" speedRelative="0.64" departed="0" arrived="5" entered="18" left="12" laneChangedFrom="0" laneChangedTo="0" flow="106.12"/>
        <edge id="337277951#0" sampledSeconds="54.33" traveltime="0.03" overlapTraveltime="0.79" density="18.51" overlapDensity="266.67" laneDensity="9.25" occupancy="4.35" waitingTime="0.00" timeLoss="10.78" speed="6.62" speedRelative="0.79" departed="0" arrived="0" entered="70" left="70" laneChangedFrom="0" laneChangedTo="0" flow="420.00"/>
        <edge id="337277951#1" sampledSeconds="188.14" traveltime="1.95" overlapTraveltime="2.63" density="16.79" overlapDensity="22.76" laneDensity="8.39" occupancy="4.19" waitingTime="0.00" timeLoss="25.84" speed="7.13" speedRelative="0.86" departed="2" arrived="0" entered="70" left="72" laneChangedFrom="7" laneChangedTo="7" flow="427.56"/>
        <edge id="337277951#2" sampledSeconds="209.36" traveltime="2.19" overlapTraveltime="2.90" density="17.10" overlapDensity="22.51" laneDensity="8.55" occupancy="4.29" waitingTime="0.00" timeLoss="30.41" speed="7.07" speedRelative="0.85" departed="1" arrived="0" entered="72" left="72" laneChangedFrom="0" laneChangedTo="0" flow="435.13"/>
        <edge id="337277951#3" sampledSeconds="65.17" traveltime="0.13" overlapTraveltime="0.91" density="17.15" overlapDensity="118.07" laneDensity="8.57" occupancy="4.59" waitingTime="1.00" timeLoss="13.63" speed="6.54" speedRelative="0.79" departed="0" arrived="0" entered="72" left="72" laneChangedFrom="0" laneChangedTo="0" flow="432.00"/>
        <edge id="337277951#4" sampledSeconds="1002.84" traveltime="10.11" overlapTraveltime="13.32" density="35.20" overlapDensity="46.27" laneDensity="17.60" occupancy="10.64" waitingTime="464.00" timeLoss="629.69" speed="3.09" speedRelative="0.37" departed="4" arrived="3" entered="72" left="73" laneChangedFrom="5" laneChangedTo="5" flow="452.61"/>
        <edge id="337277951#5" sampledSeconds="473.23" traveltime="5.70" overlapTraveltime="6.73" density="165.26" overlapDensity="191.90" laneDensity="82.63" occupancy="27.68" waitingTime="329.00" timeLoss="382.09" speed="1.35" speedRelative="0.16" departed="0" arrived="1" entered="72" left="69" laneChangedFrom="0" laneChangedTo="0" flow="429.08"/>
        <edge id="337277957#0" sampledSeconds="3145.13" traveltime="29.55" overlapTraveltime="34.64" density="45.79" overlapDensity="53.43" laneDensity="22.90" occupancy="12.15" waitingTime="1458.00" timeLoss="2006.61" speed="2.98" speedRelative="0.36" departed="6" arrived="7" entered="89" left="80" laneChangedFrom="17" laneChangedTo="17" flow="547.20"/>
        <edge id="337277957#1" sampledSeconds="77.68" traveltime="0.05" overlapTraveltime="1.00" density="30.38" overlapDensity="266.67" laneDensity="15.19" occupancy="6.21" waitingTime="0.00" timeLoss="20.46" speed="5.22" speedRelative="0.63" departed="0" arrived="0" entered="78" left="78" laneChangedFrom="0" laneChangedTo="0" flow="468.00"/>
        <edge id="337277957#2" sampledSeconds="820.95" traveltime="14.37" overlapTraveltime="15.02" density="12.20" overlapDensity="12.70" laneDensity="6.10" occupancy="3.04" waitingTime="0.00" timeLoss="84.44" speed="7.50" speedRelative="0.90" departed="0" arrived="10" entered="56" left="43" laneChangedFrom="14" laneChangedTo="14" flow="329.23"/>
        <edge id="337277957#3" sampledSeconds="677.79" traveltime="14.78" overlapTraveltime="15.43" density="9.64" overlapDensity="10.00" laneDensity="4.82" occupancy="2.40" waitingTime="0.00" timeLoss="58.05" speed="7.65" speedRelative="0.92" departed="2" arrived="11" entered="43" left="33" laneChangedFrom="5" laneChangedTo="5" flow="265.31"/>
        <edge id="337277957#4" sampledSeconds="488.25" traveltime="14.45" overlapTraveltime="15.08" density="6.98" overlapDensity="7.26" laneDensity="3.49" occupancy="1.74" waitingTime="0.00" timeLoss="39.10" speed="7.76" speedRelative="0.93" departed="0" arrived="9" entered="33" left="23" laneChangedFrom="4" laneChangedTo="4" flow="194.88"/>
        <edge id="337277957#5" sampledSeconds="362.13" traveltime="15.34" overlapTraveltime="16.01" density="5.01" overlapDensity="5.20" laneDensity="2.51" occupancy="1.25" waitingTime="0.00" timeLoss="31.18" speed="7.56" speedRelative="0.91" departed="1" arrived="8" entered="23" left="13" laneChangedFrom="1" laneChangedTo="1" flow="136.54"/>
        <edge id="337277957#6" sampledSeconds="198.15" traveltime="14.81" overlapTraveltime="15.44" density="2.75" overlapDensity="2.83" laneDensity="1.38" occupancy="0.69" waitingTime="0.00" timeLoss="16.10" speed="7.88" speedRelative="0.95" departed="0" arrived="13" entered="13" left="0" laneChangedFrom="1" laneChangedTo="1" flow="78.00"/>
        <edge id="337277970#0" sampledSeconds="73.84" traveltime="0.03" overlapTraveltime="0.80" density="25.86" overlapDensity="266.67" laneDensity="12.93" occupancy="5.92" waitingTime="0.00" timeLoss="16.03" speed="6.48" speedRelative="0.78" departed="0" arrived="0" entered="95" left="95" laneChangedFrom="1" laneChangedTo="1" flow="569.87"/>
        <edge id="337277970#1" sampledSeconds="2302.15" traveltime="19.08" overlapTraveltime="23.51" density="39.44" overlapDensity="48.47" laneDensity="19.72" occupancy="11.02" waitingTime="959.00" timeLoss="1307.64" speed="3.58" speedRelative="0.43" departed="5" arrived="6" entered="95" left="91" laneChangedFrom="31" laneChangedTo="31" flow="589.11"/>
        <edge id="337277970#2" sampledSeconds="84.19" traveltime="0.04" overlapTraveltime="0.93" density="31.70" overlapDensity="266.67" laneDensity="15.85" occupancy="6.74" waitingTime="0.00" timeLoss="22.04" speed="5.62" speedRelative="0.67" departed="0" arrived="0" entered="91" left="91" laneChangedFrom="0" laneChangedTo="0" flow="546.00"/>
        <edge id="337277973#0" sampledSeconds="92.26" traveltime="0.21" overlapTraveltime="0.92" density="26.79" overlapDensity="117.39" laneDensity="13.39" occupancy="6.09" waitingTime="0.00" timeLoss="16.47" speed="6.85" speedRelative="0.82" departed="0" arrived="0" entered="102" left="102" laneChangedFrom="2" laneChangedTo="2" flow="612.00"/>
        <edge id="337277973#1" sampledSeconds="2974.15" traveltime="22.94" overlapTraveltime="28.11" density="54.33" overlapDensity="66.25" laneDensity="27.17" occupancy="14.69" waitingTime="1453.00" timeLoss="1968.67" speed="2.84" speedRelative="0.34" departed="8" arrived="7" entered="102" left="95" laneChangedFrom="22" laneChangedTo="22" flow="638.04"/>
        <edge id="337277973#2" sampledSeconds="82.05" traveltime="0.04" overlapTraveltime="0.86" density="32.10" overlapDensity="266.67" laneDensity="16.05" occupancy="6.56" waitingTime="0.00" timeLoss="25.50" speed="6.02" speedRelative="0.72" departed="0" arrived="0" entered="95" left="95" laneChangedFrom="0" laneChangedTo="0" flow="570.00"/>
        <edge id="337277977#0" sampledSeconds="229.14" traveltime="13.66" overlapTraveltime="14.31" density="3.52" overlapDensity="3.66" laneDensity="3.52" occupancy="1.74" waitingTime="0.00" timeLoss="21.08" speed="7.65" speedRelative="0.92" departed="1" arrived="9" entered="17" left="6" laneChangedFrom="0" laneChangedTo="0" flow="96.87"/>
        <edge id="337277977#1" sampledSeconds="104.95" traveltime="17.12" overlapTraveltime="17.75" density="1.28" overlapDensity="1.31" laneDensity="1.28" occupancy="0.64" waitingTime="0.00" timeLoss="8.08" speed="7.81" speedRelative="0.94" departed="0" arrived="6" entered="6" left="0" laneChangedFrom="0" laneChangedTo="0" flow="36.00"/>
        <edge id="337277981#0" sampledSeconds="47.72" traveltime="0.03" overlapTraveltime="0.75" density="16.45" overlapDensity="266.67" laneDensity="8.23" occupancy="3.83" waitingTime="0.00" timeLoss="8.26" speed="6.91" speedRelative="0.83" departed="0" arrived="0" entered="66" left="66" laneChangedFrom="0" laneChangedTo="0" flow="396.00"/>
        <edge id="337277981#1" sampledSeconds="664.27" traveltime="8.55" overlapTraveltime="9.80" density="21.05" overlapDensity="24.11" laneDensity="10.52" occupancy="5.32" waitingTime="124.00" timeLoss="251.34" speed="5.19" speedRelative="0.62" departed="2" arrived="1" entered="66" left="67" laneChangedFrom="4" laneChangedTo="4" flow="406.67"/>
        <edge id="337277981#2" sampledSeconds="358.87" traveltime="4.49" overlapTraveltime="5.33" density="32.87" overlapDensity="38.84" laneDensity="16.43" occupancy="8.28" waitingTime="111.00" timeLoss="194.24" speed="3.83" speedRelative="0.46" departed="1" arrived="2" entered="67" left="66" laneChangedFrom="0" laneChangedTo="0" flow="406.01"/>
        <edge id="337277981#3" sampledSeconds="835.60" traveltime="6.32" overlapTraveltime="12.56" density="42.17" overlapDensity="83.64" laneDensity="21.09" occupancy="14.72" waitingTime="525.00" timeLoss="655.37" speed="1.72" speedRelative="0.21" departed="1" arrived="1" entered="66" left="66" laneChangedFrom="0" laneChangedTo="0" flow="400.16"/>
        <edge id="337277981#4" sampledSeconds="71.89" traveltime="0.05" overlapTraveltime="1.11" density="28.05" overlapDensity="266.67" laneDensity="14.03" occupancy="5.75" waitingTime="0.00" timeLoss="21.86" speed="4.70" speedRelative="0.56" departed="0" arrived="0" entered="65" left="65" laneChangedFrom="0" laneChangedTo="0" flow="390.00"/>
        <edge id="337277984#0" sampledSeconds="729.80" traveltime="5.45" overlapTraveltime="5.96" density="22.32" overlapDensity="24.33" laneDensity="11.16" occupancy="5.52" waitingTime="2.00" timeLoss="122.19" speed="9.23" speedRelative="0.83" departed="8" arrived="6" entered="118" left="115" laneChangedFrom="21" laneChangedTo="21" flow="736.88"/>
        <edge id="337277984#1" sampledSeconds="1776.79" traveltime="14.88" overlapTraveltime="15.69" density="64.35" overlapDensity="67.59" laneDensity="32.17" occupancy="16.23" waitingTime="937.00" timeLoss="1261.94" speed="3.11" speedRelative="0.28" departed="2" arrived="6" entered="114" left="104" laneChangedFrom="9" laneChangedTo="9" flow="682.06"/>
        <edge id="337277984#2" sampledSeconds="1569.69" traveltime="14.08" overlapTraveltime="14.80" density="40.17" overlapDensity="41.99" laneDensity="20.08" occupancy="10.04" waitingTime="501.00" timeLoss="916.58" speed="4.55" speedRelative="0.41" departed="9" arrived="8" entered="102" left="94" laneChangedFrom="27" laneChangedTo="27" flow="639.74"/>
        <edge id="337277984#3" sampledSeconds="2027.76" traveltime="20.56" overlapTraveltime="21.56" density="109.79" overlapDensity="114.87" laneDensity="54.89" occupancy="27.63" waitingTime="1312.00" timeLoss="1709.23" speed="1.60" speedRelative="0.14" departed="3" arrived="1" entered="94" left="92" laneChangedFrom="9" laneChangedTo="9" flow="565.67"/>
        <edge id="337277984#4" sampledSeconds="636.34" traveltime="10.46" overlapTraveltime="10.95" density="9.63" overlapDensity="10.04" laneDensity="4.82" occupancy="2.39" waitingTime="0.00" timeLoss="52.43" speed="10.11" speedRelative="0.91" departed="1" arrived="9" entered="58" left="47" laneChangedFrom="9" laneChangedTo="9" flow="350.19"/>
        <edge id="337277984#5" sampledSeconds="559.03" traveltime="11.18" overlapTraveltime="11.67" density="7.78" overlapDensity="8.11" laneDensity="3.89" occupancy="1.95" waitingTime="0.00" timeLoss="36.39" speed="10.27" speedRelative="0.92" departed="1" arrived="6" entered="47" left="42" laneChangedFrom="6" laneChangedTo="6" flow="287.73"/>
        <edge id="337277984#6" sampledSeconds="524.89" traveltime="11.52" overlapTraveltime="12.01" density="7.16" overlapDensity="7.43" laneDensity="3.58" occupancy="1.79" waitingTime="0.00" timeLoss="37.14" speed="10.23" speedRelative="0.92" departed="2" arrived="14" entered="42" left="30" laneChangedFrom="1" laneChangedTo="1" flow="263.48"/>
        <edge id="337277984#7" sampledSeconds="335.06" traveltime="10.75" overlapTraveltime="11.23" density="4.84" overlapDensity="5.02" laneDensity="2.42" occupancy="1.21" waitingTime="0.00" timeLoss="21.26" speed="10.34" speedRelative="0.93" departed="0" arrived="11" entered="30" left="19" laneChangedFrom="0" laneChangedTo="0" flow="180.00"/>
        <edge id="337277984#8" sampledSeconds="294.03" traveltime="15.10" overlapTraveltime="15.58" density="3.02" overlapDensity="3.09" laneDensity="1.51" occupancy="0.75" waitingTime="0.00" timeLoss="16.44" speed="10.49" speedRelative="0.94" departed="0" arrived="19" entered="19" left="0" laneChangedFrom="0" laneChangedTo="0" flow="114.00"/>
        <edge id="40668087#0" sampledSeconds="280.08" traveltime="16.16" overlapTraveltime="16.81" density="3.97" overlapDensity="4.14" laneDensity="3.97" occupancy="2.03" waitingTime="0.00" timeLoss="46.74" speed="7.01" speedRelative="0.84" departed="18" arrived="0" entered="0" left="17" laneChangedFrom="0" laneChangedTo="0" flow="99.89"/>
        <edge id="40668087#1" sampledSeconds="419.47" traveltime="16.28" overlapTraveltime="16.97" density="5.55" overlapDensity="5.78" laneDensity="5.55" occupancy="2.79" waitingTime="0.00" timeLoss="50.48" speed="7.42" speedRelative="0.89" departed="9" arrived="0" entered="17" left="24" laneChangedFrom="0" laneChangedTo="0" flow="148.46"/>
        <edge id="40668087#2" sampledSeconds="618.90" traveltime="15.57" overlapTraveltime="16.32" density="8.70" overlapDensity="9.12" laneDensity="8.70" occupancy="4.40" waitingTime="1.00" timeLoss="85.31" speed="7.24" speedRelative="0.87" departed="15" arrived="0" entered="24" left="38" laneChangedFrom="0" laneChangedTo="0" flow="227.54"/>
        <edge id="40668087#3" sampledSeconds="2229.35" traveltime="43.85" overlapTraveltime="44.80" density="34.58" overlapDensity="35.16" laneDensity="34.58" occupancy="17.33" waitingTime="1274.00" timeLoss="1570.99" speed="2.47" speedRelative="0.30" departed="15" arrived="1" entered="38" left="44" laneChangedFrom="0" laneChangedTo="0" flow="300.11"/>
        <edge id="40668087#4" sampledSeconds="4582.00" traveltime="50.21" overlapTraveltime="51.15" density="73.05" overlapDensity="74.21" laneDensity="73.05" occupancy="36.57" waitingTime="2684.00" timeLoss="3425.13" speed="2.11" speedRelative="0.25" departed="13" arrived="4" entered="81" left="83" laneChangedFrom="0" laneChangedTo="0" flow="538.93"/>
        <edge id="40668087#5" sampledSeconds="2325.01" traveltime="31.73" overlapTraveltime="32.54" density="44.76" overlapDensity="45.81" laneDensity="44.76" occupancy="22.40" waitingTime="1151.00" timeLoss="1555.58" speed="2.75" speedRelative="0.33" departed="5" arrived="4" entered="67" left="67" laneChangedFrom="0" laneChangedTo="0" flow="429.48"/>
        <edge id="40668087#6" sampledSeconds="344.38" traveltime="4.31" overlapTraveltime="5.09" density="55.31" overlapDensity="65.15" laneDensity="55.31" occupancy="27.85" waitingTime="192.00" timeLoss="230.01" speed="2.71" speedRelative="0.33" departed="2" arrived="4" entered="67" left="65" laneChangedFrom="0" laneChangedTo="0" flow="407.05"/>
        <edge id="42141326#0" sampledSeconds="562.03" traveltime="20.14" overlapTraveltime="20.64" density="5.07" overlapDensity="5.20" laneDensity="2.54" occupancy="1.28" waitingTime="0.00" timeLoss="92.11" speed="8.97" speedRelative="0.81" departed="28" arrived="0" entered="0" left="28" laneChangedFrom="3" laneChangedTo="3" flow="163.24"/>
        <edge id="42141326#1" sampledSeconds="383.39" traveltime="10.77" overlapTraveltime="11.27" density="5.93" overlapDensity="6.21" laneDensity="2.97" occupancy="1.49" waitingTime="0.00" timeLoss="39.14" speed="9.58" speedRelative="0.86" departed="8" arrived="0" entered="28" left="34" laneChangedFrom="2" laneChangedTo="2" flow="204.16"/>
        <edge id="42141326#10" sampledSeconds="2313.30" traveltime="30.78" overlapTraveltime="31.53" density="37.44" overlapDensity="38.33" laneDensity="18.72" occupancy="9.40" waitingTime="1150.00" timeLoss="1609.68" speed="3.35" speedRelative="0.30" departed="13" arrived="1" entered="62" left="71" laneChangedFrom="34" laneChangedTo="34" flow="440.55"/>
        <edge id="42141326#11" sampledSeconds="4035.14" traveltime="32.79" overlapTraveltime="33.68" density="65.16" overlapDensity="66.72" laneDensity="32.58" occupancy="16.34" waitingTime="1978.00" timeLoss="2861.91" speed="3.14" speedRelative="0.28" departed="17" arrived="12" entered="107" left="103" laneChangedFrom="23" laneChangedTo="23" flow="721.01"/>
        <edge id="42141326#12" sampledSeconds="887.47" traveltime="23.98" overlapTraveltime="24.97" density="15.62" overlapDensity="16.14" laneDensity="7.81" occupancy="3.93" waitingTime="419.00" timeLoss="570.29" speed="3.87" speedRelative="0.35" departed="0" arrived="9" entered="37" left="25" laneChangedFrom="5" laneChangedTo="5" flow="214.95"/>
        <edge id="42141326#13" sampledSeconds="226.44" traveltime="10.93" overlapTraveltime="11.43" density="3.43" overlapDensity="3.55" laneDensity="1.72" occupancy="0.85" waitingTime="0.00" timeLoss="23.06" speed="9.75" speedRelative="0.88" departed="1" arrived="8" entered="20" left="10" laneChangedFrom="0" laneChangedTo="0" flow="120.25"/>
        <edge id="42141326#14" sampledSeconds="103.88" traveltime="10.71" overlapTraveltime="11.18" density="1.51" overlapDensity="1.57" laneDensity="0.76" occupancy="0.38" waitingTime="0.00" timeLoss="5.94" speed="10.34" speedRelative="0.93" departed="0" arrived="9" entered="10" left="0" laneChangedFrom="0" laneChangedTo="0" flow="56.26"/>
        <edge id="42141326#2" sampledSeconds="49.82" traveltime="0.99" overlapTraveltime="1.50" density="5.55" overlapDensity="8.36" laneDensity="2.78" occupancy="1.38" waitingTime="0.00" timeLoss="3.44" speed="9.97" speedRelative="0.90" departed="0" arrived="0" entered="34" left="33" laneChangedFrom="1" laneChangedTo="1" flow="200.44"/>
        <edge id="42141326#3" sampledSeconds="49.35" traveltime="0.90" overlapTraveltime="1.44" density="6.15" overlapDensity="9.94" laneDensity="3.08" occupancy="1.60" waitingTime="0.00" timeLoss="6.96" speed="9.21" speedRelative="0.83" departed="2" arrived="0" entered="33" left="35" laneChangedFrom="1" laneChangedTo="1" flow="202.60"/>
        <edge id="42141326#4" sampledSeconds="541.62" traveltime="10.88" overlapTraveltime="11.39" density="8.42" overlapDensity="8.81" laneDensity="4.21" occupancy="2.11" waitingTime="0.00" timeLoss="70.04" speed="9.44" speedRelative="0.85" departed="14" arrived="0" entered="35" left="47" laneChangedFrom="3" laneChangedTo="3" flow="285.43"/>
        <edge id="42141326#5" sampledSeconds="759.89" traveltime="11.64" overlapTraveltime="12.16" density="11.07" overlapDensity="11.55" laneDensity="5.53" occupancy="2.78" waitingTime="0.00" timeLoss="106.33" speed="9.43" speedRelative="0.85" departed="17" arrived="3" entered="47" left="60" laneChangedFrom="3" laneChangedTo="3" flow="375.21"/>
        <edge id="42141326#6" sampledSeconds="68.37" traveltime="0.63" overlapTraveltime="1.14" density="10.30" overlapDensity="18.77" laneDensity="5.15" occupancy="2.57" waitingTime="0.00" timeLoss="7.76" speed="9.72" speedRelative="0.87" departed="0" arrived="0" entered="60" left="60" laneChangedFrom="0" laneChangedTo="0" flow="360.00"/>
        <edge id="42141326#7" sampledSeconds="67.95" traveltime="0.62" overlapTraveltime="1.13" density="10.30" overlapDensity="18.94" laneDensity="5.15" occupancy="2.58" waitingTime="0.00" timeLoss="7.84" speed="9.70" speedRelative="0.87" departed="0" arrived="0" entered="60" left="60" laneChangedFrom="0" laneChangedTo="0" flow="360.00"/>
        <edge id="42141326#8" sampledSeconds="803.66" traveltime="10.81" overlapTraveltime="11.47" density="19.34" overlapDensity="20.53" laneDensity="9.67" occupancy="4.89" waitingTime="153.00" timeLoss="358.50" speed="6.12" speedRelative="0.55" departed="11" arrived="1" entered="60" left="69" laneChangedFrom="2" laneChangedTo="2" flow="420.34"/>
        <edge id="42141326#9" sampledSeconds="1241.24" traveltime="16.54" overlapTraveltime="17.46" density="68.48" overlapDensity="71.76" laneDensity="34.24" occupancy="17.21" waitingTime="760.00" timeLoss="1013.64" speed="1.94" speedRelative="0.17" departed="4" arrived="1" entered="69" left="68" laneChangedFrom="10" laneChangedTo="10" flow="429.78"/>
        <edge id="42143912#0" sampledSeconds="330.74" traveltime="22.11" overlapTraveltime="22.76" density="3.38" overlapDensity="3.48" laneDensity="3.38" occupancy="1.72" waitingTime="0.00" timeLoss="46.80" speed="7.17" speedRelative="0.86" departed="15" arrived="0" entered="0" left="15" laneChangedFrom="0" laneChangedTo="0" flow="87.10"/>
        <edge id="42143912#1" sampledSeconds="132.52" traveltime="6.47" overlapTraveltime="7.12" density="4.26" overlapDensity="4.70" laneDensity="4.26" occupancy="2.15" waitingTime="0.00" timeLoss="16.71" speed="7.29" speedRelative="0.88" departed="4" arrived="0" entered="15" left="19" laneChangedFrom="0" laneChangedTo="0" flow="111.39"/>
        <edge id="42143912#2" sampledSeconds="807.49" traveltime="29.94" overlapTraveltime="30.80" density="27.72" overlapDensity="28.61" laneDensity="27.72" occupancy="13.99" waitingTime="532.00" timeLoss="641.60" speed="1.69" speedRelative="0.20" departed="8" arrived="0" entered="19" left="27" laneChangedFrom="0" laneChangedTo="0" flow="156.80"/>
        <edge id="42143912#3" sampledSeconds="1014.01" traveltime="9.29" overlapTraveltime="10.06" density="34.79" overlapDensity="37.64" laneDensity="34.79" occupancy="17.43" waitingTime="212.00" timeLoss="414.34" speed="4.96" speedRelative="0.60" departed="9" arrived="6" entered="93" left="95" laneChangedFrom="0" laneChangedTo="0" flow="605.67"/>
        <edge id="42143912#4" sampledSeconds="76.15" traveltime="0.03" overlapTraveltime="0.80" density="24.00" overlapDensity="133.33" laneDensity="24.00" occupancy="12.19" waitingTime="0.00" timeLoss="17.15" speed="6.49" speedRelative="0.78" departed="0" arrived="0" entered="95" left="95" laneChangedFrom="0" laneChangedTo="0" flow="570.00"/>
        <edge id="42143912#5" sampledSeconds="2143.84" traveltime="21.81" overlapTraveltime="22.69" density="80.63" overlapDensity="83.54" laneDensity="80.63" occupancy="39.83" waitingTime="1274.00" timeLoss="1594.55" speed="2.11" speedRelative="0.25" departed="3" arrived="2" entered="95" left="90" laneChangedFrom="0" laneChangedTo="0" flow="569.23"/>
        <edge id="45429543#0" sampledSeconds="751.21" traveltime="30.15" overlapTraveltime="30.81" density="5.59" overlapDensity="5.71" laneDensity="5.59" occupancy="2.83" waitingTime="0.00" timeLoss="98.76" speed="7.28" speedRelative="0.87" departed="27" arrived="0" entered="0" left="24" laneChangedFrom="0" laneChangedTo="0" flow="146.35"/>
        <edge id="45429543#1" sampledSeconds="1071.05" traveltime="31.10" overlapTraveltime="32.04" density="16.17" overlapDensity="16.64" laneDensity="16.17" occupancy="8.15" waitingTime="473.00" timeLoss="612.88" speed="3.50" speedRelative="0.42" departed="10" arrived="0" entered="24" left="33" laneChangedFrom="0" laneChangedTo="0" flow="200.70"/>
        <edge id="45429543#2" sampledSeconds="2592.71" traveltime="56.61" overlapTraveltime="57.78" density="42.42" overlapDensity="42.98" laneDensity="42.42" occupancy="21.24" waitingTime="1750.00" timeLoss="2032.39" speed="1.83" speedRelative="0.22" departed="11" arrived="2" entered="39" left="37" laneChangedFrom="0" laneChangedTo="0" flow="271.25"/>
        <edge id="45429543#3" sampledSeconds="4110.89" traveltime="58.60" overlapTraveltime="59.82" density="73.17" overlapDensity="74.29" laneDensity="73.17" occupancy="36.58" waitingTime="2309.00" timeLoss="3295.53" speed="1.63" speedRelative="0.20" departed="4" arrived="6" entered="70" left="58" laneChangedFrom="0" laneChangedTo="0" flow="414.54"/>
        <edge id="45429543#4" sampledSeconds="214.66" traveltime="10.14" overlapTraveltime="10.80" density="4.47" overlapDensity="4.73" laneDensity="4.47" occupancy="2.22" waitingTime="0.00" timeLoss="18.63" speed="7.46" speedRelative="0.90" departed="0" arrived="6" entered="20" left="14" laneChangedFrom="0" laneChangedTo="0" flow="120.00"/>
        <edge id="45429543#5" sampledSeconds="172.89" traveltime="6.22" overlapTraveltime="12.79" density="6.86" overlapDensity="13.64" laneDensity="6.86" occupancy="5.13" waitingTime="100.00" timeLoss="129.24" speed="2.04" speedRelative="0.25" departed="0" arrived="3" entered="14" left="11" laneChangedFrom="0" laneChangedTo="0" flow="84.00"/>
        <edge id="45429543#6" sampledSeconds="13.33" traveltime="0.07" overlapTraveltime="1.21" density="6.58" overlapDensity="111.05" laneDensity="6.58" occupancy="2.12" waitingTime="0.00" timeLoss="4.63" speed="4.29" speedRelative="0.52" departed="0" arrived="0" entered="11" left="11" laneChangedFrom="0" laneChangedTo="0" flow="66.00"/>
        <edge id="49217102" sampledSeconds="2614.99" traveltime="34.21" overlapTraveltime="35.04" density="43.10" overlapDensity="44.08" laneDensity="43.10" occupancy="21.58" waitingTime="1233.00" timeLoss="1675.62" speed="2.96" speedRelative="0.36" departed="13" arrived="5" entered="65" left="68" laneChangedFrom="0" laneChangedTo="0" flow="448.50"/>
        <edge id="49217108#0" sampledSeconds="876.98" traveltime="27.23" overlapTraveltime="28.27" density="15.98" overlapDensity="16.59" laneDensity="15.98" occupancy="8.10" waitingTime="379.00" timeLoss="529.61" speed="3.29" speedRelative="0.40" departed="17" arrived="4" entered="15" left="28" laneChangedFrom="0" laneChangedTo="0" flow="186.10"/>
        <edge id="49217108#1" sampledSeconds="29.83" traveltime="0.03" overlapTraveltime="1.07" density="13.99" overlapDensity="133.33" laneDensity="13.99" occupancy="4.86" waitingTime="0.00" timeLoss="11.90" speed="4.79" speedRelative="0.57" departed="0" arrived="0" entered="28" left="28" laneChangedFrom="0" laneChangedTo="0" flow="168.00"/>
        <edge id="49217108#2" sampledSeconds="2137.67" traveltime="34.91" overlapTraveltime="35.98" density="39.65" overlapDensity="40.66" laneDensity="39.65" occupancy="19.91" waitingTime="939.00" timeLoss="1476.20" speed="2.57" speedRelative="0.31" departed="11" arrived="7" entered="50" left="51" laneChangedFrom="0" laneChangedTo="0" flow="358.23"/>
        <edge id="49217108#3" sampledSeconds="402.63" traveltime="6.68" overlapTraveltime="7.68" density="49.72" overlapDensity="57.40" laneDensity="49.72" occupancy="25.30" waitingTime="230.00" timeLoss="287.67" speed="2.17" speedRelative="0.26" departed="3" arrived="0" entered="51" left="53" laneChangedFrom="0" laneChangedTo="0" flow="313.13"/>
        <edge id="49217109#0" sampledSeconds="10.31" traveltime="0.04" overlapTraveltime="1.15" density="3.25" overlapDensity="85.88" laneDensity="3.25" occupancy="1.65" waitingTime="0.00" timeLoss="1.43" speed="4.54" speedRelative="0.82" departed="0" arrived="0" entered="9" left="9" laneChangedFrom="0" laneChangedTo="0" flow="54.00"/>
        <edge id="49217109#1" sampledSeconds="10.11" traveltime="0.04" overlapTraveltime="1.12" density="3.33" overlapDensity="84.23" laneDensity="3.33" occupancy="1.62" waitingTime="0.00" timeLoss="1.23" speed="4.63" speedRelative="0.83" departed="0" arrived="0" entered="9" left="9" laneChangedFrom="0" laneChangedTo="0" flow="54.00"/>
        <edge id="49217109#2" sampledSeconds="210.55" traveltime="22.87" overlapTraveltime="23.98" density="3.33" overlapDensity="3.41" laneDensity="3.33" occupancy="1.66" waitingTime="0.00" timeLoss="30.91" speed="4.50" speedRelative="0.81" departed="0" arrived="9" entered="9" left="0" laneChangedFrom="0" laneChangedTo="0" flow="54.00"/>
        <edge id="49217110#0" sampledSeconds="241.86" traveltime="16.21" overlapTraveltime="16.85" density="3.39" overlapDensity="3.53" laneDensity="3.39" occupancy="1.73" waitingTime="0.00" timeLoss="39.55" speed="7.07" speedRelative="0.85" departed="15" arrived="0" entered="0" left="15" laneChangedFrom="0" laneChangedTo="0" flow="85.98"/>
        <edge id="49217110#1" sampledSeconds="742.64" traveltime="22.11" overlapTraveltime="29.64" density="8.77" overlapDensity="11.72" laneDensity="8.77" occupancy="5.14" waitingTime="291.00" timeLoss="414.37" speed="3.73" speedRelative="0.45" departed="11" arrived="0" entered="15" left="24" laneChangedFrom="0" laneChangedTo="0" flow="150.79"/>
        <edge id="49217110#2" sampledSeconds="22.85" traveltime="0.05" overlapTraveltime="0.99" density="9.20" overlapDensity="133.33" laneDensity="9.20" occupancy="3.65" waitingTime="0.00" timeLoss="8.07" speed="5.23" speedRelative="0.63" departed="0" arrived="0" entered="23" left="23" laneChangedFrom="0" laneChangedTo="0" flow="138.00"/>
        <edge id="49217121" sampledSeconds="2362.47" traveltime="36.21" overlapTraveltime="37.16" density="38.58" overlapDensity="39.48" laneDensity="38.58" occupancy="19.35" waitingTime="1111.00" timeLoss="1550.20" speed="2.82" speedRelative="0.34" departed="12" arrived="5" entered="53" left="57" laneChangedFrom="0" laneChangedTo="0" flow="382.55"/>