<?xml version="1.0" encoding="UTF-8"?>

<!-- generated on 2026-01-31T14:25:01.848811-05:00 by Eclipse SUMO sumo v1_25_0+0955-b1df2471f66
<sumoConfiguration xmlns:xsi="http://www.w3.org/2001/XMLSchema-instance" xsi:noNamespaceSchemaLocation="http://sumo.dlr.de/xsd/sumoConfiguration.xsd">

    <input>
        <net-file value="red_osm.net.xml"/>
        <route-files value="rutas_osm.rou.xml"/>
        <additional-files value="input-additional-edgeData.xml"/>
    </input>

    <output>
        <fcd-output value="fcd.xml"/>
        <amitran-output value="trajectories.xml"/>
        <tripinfo-output value="tripinfo.xml"/>
        <edgedata-output value="edgedata.xml"/>
    </output>

    <time>
        <begin value="0"/>
        <end value="600"/>
    </time>

</sumoConfiguration>
-->

<meandata xmlns:xsi="http://www.w3.org/2001/XMLSchema-instance" xsi:noNamespaceSchemaLocation="http://sumo.dlr.de/xsd/meandata_file.xsd">
    <interval begin="0.00" end="600.00" id="1">
        <edge id="1053072563" sampledSeconds="335.06" CO_abs="872.47" CO2_abs="518811.41" HC_abs="5.81" PMx_abs="33.10" NOx_abs="185.30" fuel_abs="168193.40" electricity_abs="0.00"
            CO_normed="52.02" CO2_normed="30933.80" HC_normed="0.35" PMx_normed="1.97" NOx_normed="11.05" fuel_normed="10028.42" electricity_normed="0.00"
            traveltime="18.94" CO_perVeh="49.33" CO2_perVeh="29332.21" HC_perVeh="0.33" PMx_perVeh="1.87" NOx_perVeh="10.48" fuel_perVeh="9509.21" electricity_perVeh="0.00"/>
        <edge id="337277951#0" sampledSeconds="2.22" CO_abs="9.69" CO2_abs="4271.77" HC_abs="0.06" PMx_abs="0.30" NOx_abs="1.39" fuel_abs="1384.85" electricity_abs="0.00"
            CO_normed="290.62" CO2_normed="128152.99" HC_normed="1.92" PMx_normed="8.91" NOx_normed="41.69" fuel_normed="41545.50" electricity_normed="0.00"
            traveltime="0.03" CO_perVeh="0.14" CO2_perVeh="61.03" HC_perVeh="0.00" PMx_perVeh="0.00" NOx_perVeh="0.02" fuel_perVeh="19.78" electricity_perVeh="0.00"/>
        <edge id="337277951#1" sampledSeconds="138.80" CO_abs="908.61" CO2_abs="317195.51" HC_abs="6.01" PMx_abs="20.80" NOx_abs="99.82" fuel_abs="102830.14" electricity_abs="0.00"
            CO_normed="395.62" CO2_normed="138111.25" HC_normed="2.62" PMx_normed="9.06" NOx_normed="43.46" fuel_normed="44773.65" electricity_normed="0.00"
            traveltime="1.95" CO_perVeh="12.75" CO2_perVeh="4451.25" HC_perVeh="0.08" PMx_perVeh="0.29" NOx_perVeh="1.40" fuel_perVeh="1443.03" electricity_perVeh="0.00"/>
        <edge id="337277951#2" sampledSeconds="159.07" CO_abs="540.70" CO2_abs="244124.62" HC_abs="3.60" PMx_abs="20.23" NOx_abs="81.53" fuel_abs="79142.24" electricity_abs="0.00"
            CO_normed="209.30" CO2_normed="94499.85" HC_normed="1.39" PMx_normed="7.83" NOx_normed="31.56" fuel_normed="30635.71" electricity_normed="0.00"
            traveltime="2.19" CO_perVeh="7.46" CO2_perVeh="3366.20" HC_perVeh="0.05" PMx_perVeh="0.28" NOx_perVeh="1.12" fuel_perVeh="1091.28" electricity_perVeh="0.00"/>
        <edge id="337277951#3" sampledSeconds="9.46" CO_abs="31.31" CO2_abs="13302.46" HC_abs="0.21" PMx_abs="1.06" NOx_abs="4.43" fuel_abs="4312.50" electricity_abs="0.00"
            CO_normed="204.17" CO2_normed="86755.21" HC_normed="1.36" PMx_normed="6.91" NOx_normed="28.90" fuel_normed="28124.98" electricity_normed="0.00"
            traveltime="0.13" CO_perVeh="0.43" CO2_perVeh="184.76" HC_perVeh="0.00" PMx_perVeh="0.01" NOx_perVeh="0.06" fuel_perVeh="59.90" electricity_perVeh="0.00"/>
        <edge id="337277951#4" sampledSeconds="762.95" CO_abs="1608.71" CO2_abs="1244536.57" HC_abs="10.66" PMx_abs="51.17" NOx_abs="438.21" fuel_abs="403465.12" electricity_abs="0.00"
            CO_normed="267.23" CO2_normed="206733.65" HC_normed="1.77" PMx_normed="8.50" NOx_normed="72.79" fuel_normed="67020.78" electricity_normed="0.00"
            traveltime="10.11" CO_perVeh="21.33" CO2_perVeh="16498.08" HC_perVeh="0.14" PMx_perVeh="0.68" NOx_perVeh="5.81" fuel_perVeh="5348.50" electricity_perVeh="0.00"/>
        <edge id="337277951#5" sampledSeconds="407.54" CO_abs="121.14" CO2_abs="590740.87" HC_abs="0.80" PMx_abs="4.14" NOx_abs="232.92" fuel_abs="191514.40" electricity_abs="0.00"
            CO_normed="176.85" CO2_normed="862395.43" HC_normed="1.17" PMx_normed="6.04" NOx_normed="340.02" fuel_normed="279583.07" electricity_normed="0.00"
            traveltime="5.70" CO_perVeh="1.69" CO2_perVeh="8260.63" HC_perVeh="0.01" PMx_perVeh="0.06" NOx_perVeh="3.26" fuel_perVeh="2678.04" electricity_perVeh="0.00"/>
        <edge id="337277957#0" sampledSeconds="2695.41" CO_abs="5452.42" CO2_abs="4397619.52" HC_abs="36.12" PMx_abs="164.76" NOx_abs="1555.80" fuel_abs="1425661.10" electricity_abs="0.00"
            CO_normed="333.48" CO2_normed="268967.55" HC_normed="2.21" PMx_normed="10.08" NOx_normed="95.16" fuel_normed="87196.40" electricity_normed="0.00"
            traveltime="29.55" CO_perVeh="59.79" CO2_perVeh="48219.25" HC_perVeh="0.40" PMx_perVeh="1.81" NOx_perVeh="17.06" fuel_perVeh="15632.16" electricity_perVeh="0.00"/>
        <edge id="337277957#1" sampledSeconds="3.65" CO_abs="14.07" CO2_abs="9713.88" HC_abs="0.09" PMx_abs="0.36" NOx_abs="2.66" fuel_abs="3149.03" electricity_abs="0.00"
            CO_normed="422.14" CO2_normed="291416.44" HC_normed="2.79" PMx_normed="10.67" NOx_normed="79.84" fuel_normed="94470.99" electricity_normed="0.00"
            traveltime="0.05" CO_perVeh="0.18" CO2_perVeh="124.54" HC_perVeh="0.00" PMx_perVeh="0.00" NOx_perVeh="0.03" fuel_perVeh="40.37" electricity_perVeh="0.00"/>
        <edge id="337277957#2" sampledSeconds="788.53" CO_abs="3426.78" CO2_abs="1310815.55" HC_abs="22.76" PMx_abs="110.44" NOx_abs="440.03" fuel_abs="424950.76" electricity_abs="0.00"
            CO_normed="190.91" CO2_normed="73025.94" HC_normed="1.27" PMx_normed="6.15" NOx_normed="24.51" fuel_normed="23674.14" electricity_normed="0.00"
            traveltime="14.37" CO_perVeh="62.45" CO2_perVeh="23888.74" HC_perVeh="0.41" PMx_perVeh="2.01" NOx_perVeh="8.02" fuel_perVeh="7744.44" electricity_perVeh="0.00"/>
        <edge id="337277957#3" sampledSeconds="653.59" CO_abs="2255.54" CO2_abs="998941.90" HC_abs="15.04" PMx_abs="93.21" NOx_abs="343.62" fuel_abs="323846.10" electricity_abs="0.00"
            CO_normed="119.80" CO2_normed="53055.25" HC_normed="0.80" PMx_normed="4.95" NOx_normed="18.25" fuel_normed="17199.93" electricity_normed="0.00"
            traveltime="14.78" CO_perVeh="51.01" CO2_perVeh="22591.30" HC_perVeh="0.34" PMx_perVeh="2.11" NOx_perVeh="7.77" fuel_perVeh="7323.85" electricity_perVeh="0.00"/>
        <edge id="337277957#4" sampledSeconds="469.35" CO_abs="1750.27" CO2_abs="714600.95" HC_abs="11.66" PMx_abs="66.91" NOx_abs="245.95" fuel_abs="231665.85" electricity_abs="0.00"
            CO_normed="93.73" CO2_normed="38268.53" HC_normed="0.62" PMx_normed="3.58" NOx_normed="13.17" fuel_normed="12406.24" electricity_normed="0.00"
            traveltime="14.45" CO_perVeh="53.89" CO2_perVeh="22001.74" HC_perVeh="0.36" PMx_perVeh="2.06" NOx_perVeh="7.57" fuel_perVeh="7132.73" electricity_perVeh="0.00"/>
        <edge id="337277957#5" sampledSeconds="349.15" CO_abs="1204.11" CO2_abs="537397.61" HC_abs="8.03" PMx_abs="49.62" NOx_abs="184.39" fuel_abs="174218.41" electricity_abs="0.00"
            CO_normed="62.24" CO2_normed="27779.66" HC_normed="0.42" PMx_normed="2.56" NOx_normed="9.53" fuel_normed="9005.86" electricity_normed="0.00"
            traveltime="15.34" CO_perVeh="52.91" CO2_perVeh="23615.30" HC_perVeh="0.35" PMx_perVeh="2.18" NOx_perVeh="8.10" fuel_perVeh="7655.82" electricity_perVeh="0.00"/>
        <edge id="337277957#6" sampledSeconds="192.50" CO_abs="703.60" CO2_abs="295251.12" HC_abs="4.70" PMx_abs="28.51" NOx_abs="101.85" fuel_abs="95717.25" electricity_abs="0.00"
            CO_normed="36.21" CO2_normed="15194.33" HC_normed="0.24" PMx_normed="1.47" NOx_normed="5.24" fuel_normed="4925.84" electricity_normed="0.00"
            traveltime="14.81" CO_perVeh="54.12" CO2_perVeh="22711.62" HC_perVeh="0.36" PMx_perVeh="2.19" NOx_perVeh="7.83" fuel_perVeh="7362.87" electricity_perVeh="0.00"/>
        <edge id="337277970#0" sampledSeconds="3.10" CO_abs="12.28" CO2_abs="6195.37" HC_abs="0.08" PMx_abs="0.39" NOx_abs="1.97" fuel_abs="2008.45" electricity_abs="0.00"
            CO_normed="368.25" CO2_normed="185861.15" HC_normed="2.44" PMx_normed="11.76" NOx_normed="59.15" fuel_normed="60253.58" electricity_normed="0.00"
            traveltime="0.03" CO_perVeh="0.13" CO2_perVeh="65.23" HC_perVeh="0.00" PMx_perVeh="0.00" NOx_perVeh="0.02" fuel_perVeh="21.15" electricity_perVeh="0.00"/>
        <edge id="337277970#1" sampledSeconds="1873.27" CO_abs="5268.92" CO2_abs="3247581.77" HC_abs="34.92" PMx_abs="152.37" NOx_abs="1126.24" fuel_abs="1052829.16" electricity_abs="0.00"
            CO_normed="399.36" CO2_normed="246153.24" HC_normed="2.65" PMx_normed="11.55" NOx_normed="85.36" fuel_normed="79800.09" electricity_normed="0.00"
            traveltime="19.08" CO_perVeh="53.66" CO2_perVeh="33076.01" HC_perVeh="0.36" PMx_perVeh="1.55" NOx_perVeh="11.47" fuel_perVeh="10722.87" electricity_perVeh="0.00"/>
        <edge id="337277970#2" sampledSeconds="3.80" CO_abs="16.82" CO2_abs="9760.17" HC_abs="0.11" PMx_abs="0.39" NOx_abs="2.68" fuel_abs="3164.04" electricity_abs="0.00"
            CO_normed="504.52" CO2_normed="292805.08" HC_normed="3.33" PMx_normed="11.60" NOx_normed="80.55" fuel_normed="94921.26" electricity_normed="0.00"
            traveltime="0.04" CO_perVeh="0.18" CO2_perVeh="107.25" HC_perVeh="0.00" PMx_perVeh="0.00" NOx_perVeh="0.03" fuel_perVeh="34.77" electricity_perVeh="0.00"/>
        <edge id="337277973#0" sampledSeconds="21.05" CO_abs="86.43" CO2_abs="35385.02" HC_abs="0.57" PMx_abs="2.40" NOx_abs="11.40" fuel_abs="11471.34" electricity_abs="0.00"
            CO_normed="395.86" CO2_normed="162068.79" HC_normed="2.62" PMx_normed="10.99" NOx_normed="52.21" fuel_normed="52540.51" electricity_normed="0.00"
            traveltime="0.21" CO_perVeh="0.85" CO2_perVeh="346.91" HC_perVeh="0.01" PMx_perVeh="0.02" NOx_perVeh="0.11" fuel_perVeh="112.46" electricity_perVeh="0.00"/>
        <edge id="337277973#1" sampledSeconds="2439.13" CO_abs="5765.68" CO2_abs="4212708.64" HC_abs="38.17" PMx_abs="153.72" NOx_abs="1472.74" fuel_abs="1365712.04" electricity_abs="0.00"
            CO_normed="462.36" CO2_normed="337827.48" HC_normed="3.06" PMx_normed="12.33" NOx_normed="118.10" fuel_normed="109519.81" electricity_normed="0.00"
            traveltime="22.94" CO_perVeh="54.22" CO2_perVeh="39615.51" HC_perVeh="0.36" PMx_perVeh="1.45" NOx_perVeh="13.85" fuel_perVeh="12842.90" electricity_perVeh="0.00"/>
        <edge id="337277973#2" sampledSeconds="3.85" CO_abs="17.38" CO2_abs="9971.05" HC_abs="0.11" PMx_abs="0.40" NOx_abs="2.75" fuel_abs="3232.41" electricity_abs="0.00"
            CO_normed="521.50" CO2_normed="299131.51" HC_normed="3.44" PMx_normed="11.91" NOx_normed="82.46" fuel_normed="96972.16" electricity_normed="0.00"
            traveltime="0.04" CO_perVeh="0.18" CO2_perVeh="104.96" HC_perVeh="0.00" PMx_perVeh="0.00" NOx_perVeh="0.03" fuel_perVeh="34.03" electricity_perVeh="0.00"/>
        <edge id="337277977#0" sampledSeconds="220.60" CO_abs="1031.89" CO2_abs="396081.40" HC_abs="6.86" PMx_abs="33.14" NOx_abs="131.60" fuel_abs="128404.69" electricity_abs="0.00"
            CO_normed="59.28" CO2_normed="22754.58" HC_normed="0.39" PMx_normed="1.90" NOx_normed="7.56" fuel_normed="7376.75" electricity_normed="0.00"
            traveltime="13.66" CO_perVeh="63.92" CO2_perVeh="24533.39" HC_perVeh="0.42" PMx_perVeh="2.05" NOx_perVeh="8.15" fuel_perVeh="7953.42" electricity_perVeh="0.00"/>
        <edge id="337277977#1" sampledSeconds="102.72" CO_abs="392.12" CO2_abs="155613.84" HC_abs="2.61" PMx_abs="14.41" NOx_abs="53.34" fuel_abs="50448.28" electricity_abs="0.00"
            CO_normed="17.60" CO2_normed="6986.03" HC_normed="0.12" PMx_normed="0.65" NOx_normed="2.39" fuel_normed="2264.79" electricity_normed="0.00"
            traveltime="17.12" CO_perVeh="65.35" CO2_perVeh="25935.64" HC_perVeh="0.44" PMx_perVeh="2.40" NOx_perVeh="8.89" fuel_perVeh="8408.05" electricity_perVeh="0.00"/>
        <edge id="337277981#0" sampledSeconds="1.97" CO_abs="9.04" CO2_abs="3558.88" HC_abs="0.06" PMx_abs="0.25" NOx_abs="1.17" fuel_abs="1153.74" electricity_abs="0.00"
            CO_normed="271.10" CO2_normed="106766.53" HC_normed="1.79" PMx_normed="7.58" NOx_normed="34.96" fuel_normed="34612.33" electricity_normed="0.00"
            traveltime="0.03" CO_perVeh="0.14" CO2_perVeh="53.92" HC_perVeh="0.00" PMx_perVeh="0.00" NOx_perVeh="0.02" fuel_perVeh="17.48" electricity_perVeh="0.00"/>
        <edge id="337277981#1" sampledSeconds="579.82" CO_abs="1868.08" CO2_abs="960537.04" HC_abs="12.40" PMx_abs="58.65" NOx_abs="326.91" fuel_abs="311394.81" electricity_abs="0.00"
            CO_normed="244.14" CO2_normed="125533.05" HC_normed="1.62" PMx_normed="7.67" NOx_normed="42.72" fuel_normed="40696.34" electricity_normed="0.00"
            traveltime="8.55" CO_perVeh="27.56" CO2_perVeh="14171.85" HC_perVeh="0.18" PMx_perVeh="0.87" NOx_perVeh="4.82" fuel_perVeh="4594.35" electricity_perVeh="0.00"/>
        <edge id="337277981#2" sampledSeconds="303.69" CO_abs="611.75" CO2_abs="490217.49" HC_abs="4.06" PMx_abs="19.46" NOx_abs="171.89" fuel_abs="158923.08" electricity_abs="0.00"
            CO_normed="238.34" CO2_normed="190993.83" HC_normed="1.58" PMx_normed="7.58" NOx_normed="66.97" fuel_normed="61918.08" electricity_normed="0.00"
            traveltime="4.49" CO_perVeh="9.04" CO2_perVeh="7244.36" HC_perVeh="0.06" PMx_perVeh="0.29" NOx_perVeh="2.54" fuel_perVeh="2348.54" electricity_perVeh="0.00"/>
        <edge id="337277981#3" sampledSeconds="421.30" CO_abs="644.23" CO2_abs="667119.36" HC_abs="4.26" PMx_abs="19.40" NOx_abs="236.33" fuel_abs="216272.88" electricity_abs="0.00"
            CO_normed="232.16" CO2_normed="240403.37" HC_normed="1.54" PMx_normed="6.99" NOx_normed="85.16" fuel_normed="77936.17" electricity_normed="0.00"
            traveltime="6.32" CO_perVeh="9.66" CO2_perVeh="10002.74" HC_perVeh="0.06" PMx_perVeh="0.29" NOx_perVeh="3.54" fuel_perVeh="3242.78" electricity_perVeh="0.00"/>
        <edge id="337277981#4" sampledSeconds="3.37" CO_abs="7.46" CO2_abs="7868.18" HC_abs="0.05" PMx_abs="0.23" NOx_abs="2.06" fuel_abs="2550.68" electricity_abs="0.00"
            CO_normed="223.91" CO2_normed="236045.26" HC_normed="1.48" PMx_normed="6.98" NOx_normed="61.71" fuel_normed="76520.37" electricity_normed="0.00"
            traveltime="0.05" CO_perVeh="0.11" CO2_perVeh="121.05" HC_perVeh="0.00" PMx_perVeh="0.00" NOx_perVeh="0.03" fuel_perVeh="39.24" electricity_perVeh="0.00"/>
        <edge id="337277984#0" sampledSeconds="669.72" CO_abs="9640.25" CO2_abs="2060577.89" HC_abs="63.83" PMx_abs="149.72" NOx_abs="670.08" fuel_abs="668009.07" electricity_abs="0.00"
            CO_normed="1156.83" CO2_normed="247269.35" HC_normed="7.66" PMx_normed="17.97" NOx_normed="80.41" fuel_normed="80161.09" electricity_normed="0.00"
            traveltime="5.45" CO_perVeh="78.49" CO2_perVeh="16778.04" HC_perVeh="0.52" PMx_perVeh="1.22" NOx_perVeh="5.46" fuel_perVeh="5439.20" electricity_perVeh="0.00"/>
        <edge id="337277984#1" sampledSeconds="1691.39" CO_abs="3553.88" CO2_abs="2687351.14" HC_abs="23.64" PMx_abs="86.66" NOx_abs="987.63" fuel_abs="871213.67" electricity_abs="0.00"
            CO_normed="486.72" CO2_normed="368046.26" HC_normed="3.24" PMx_normed="11.87" NOx_normed="135.26" fuel_normed="119317.10" electricity_normed="0.00"
            traveltime="14.88" CO_perVeh="31.26" CO2_perVeh="23640.28" HC_perVeh="0.21" PMx_perVeh="0.76" NOx_perVeh="8.69" fuel_perVeh="7663.95" electricity_perVeh="0.00"/>
        <edge id="337277984#2" sampledSeconds="1501.73" CO_abs="8155.38" CO2_abs="3080147.29" HC_abs="53.99" PMx_abs="142.96" NOx_abs="1043.18" fuel_abs="998543.53" electricity_abs="0.00"
            CO_normed="785.30" CO2_normed="296595.79" HC_normed="5.20" PMx_normed="13.77" NOx_normed="100.45" fuel_normed="96152.48" electricity_normed="0.00"
            traveltime="14.08" CO_perVeh="76.49" CO2_perVeh="28887.98" HC_perVeh="0.51" PMx_perVeh="1.34" NOx_perVeh="9.78" fuel_perVeh="9365.10" electricity_perVeh="0.00"/>
        <edge id="337277984#3" sampledSeconds="1938.01" CO_abs="1989.66" CO2_abs="3040654.58" HC_abs="13.18" PMx_abs="48.90" NOx_abs="1137.67" fuel_abs="985753.38" electricity_abs="0.00"
            CO_normed="405.78" CO2_normed="620119.90" HC_normed="2.69" PMx_normed="9.97" NOx_normed="232.02" fuel_normed="201037.40" electricity_normed="0.00"
            traveltime="20.56" CO_perVeh="21.10" CO2_perVeh="32251.69" HC_perVeh="0.14" PMx_perVeh="0.52" NOx_perVeh="12.07" fuel_perVeh="10455.71" electricity_perVeh="0.00"/>
        <edge id="337277984#4" sampledSeconds="610.63" CO_abs="5777.49" CO2_abs="1329634.87" HC_abs="38.47" PMx_abs="129.03" NOx_abs="452.46" fuel_abs="431050.93" electricity_abs="0.00"
            CO_normed="328.05" CO2_normed="75497.39" HC_normed="2.18" PMx_normed="7.33" NOx_normed="25.69" fuel_normed="24475.31" electricity_normed="0.00"
            traveltime="10.46" CO_perVeh="98.99" CO2_perVeh="22781.34" HC_perVeh="0.66" PMx_perVeh="2.21" NOx_perVeh="7.75" fuel_perVeh="7385.42" electricity_perVeh="0.00"/>
        <edge id="337277984#5" sampledSeconds="536.10" CO_abs="3770.96" CO2_abs="953371.11" HC_abs="25.24" PMx_abs="109.52" NOx_abs="334.44" fuel_abs="309072.35" electricity_abs="0.00"
            CO_normed="197.02" CO2_normed="49810.40" HC_normed="1.32" PMx_normed="5.72" NOx_normed="17.47" fuel_normed="16147.98" electricity_normed="0.00"
            traveltime="11.18" CO_perVeh="78.63" CO2_perVeh="19880.29" HC_perVeh="0.53" PMx_perVeh="2.28" NOx_perVeh="6.97" fuel_perVeh="6444.97" electricity_perVeh="0.00"/>
        <edge id="337277984#6" sampledSeconds="505.86" CO_abs="3486.43" CO2_abs="903524.47" HC_abs="23.34" PMx_abs="102.96" NOx_abs="315.83" fuel_abs="292912.54" electricity_abs="0.00"
            CO_normed="177.59" CO2_normed="46023.83" HC_normed="1.19" PMx_normed="5.24" NOx_normed="16.09" fuel_normed="14920.41" electricity_normed="0.00"
            traveltime="11.52" CO_perVeh="79.39" CO2_perVeh="20575.36" HC_perVeh="0.53" PMx_perVeh="2.34" NOx_perVeh="7.19" fuel_perVeh="6670.30" electricity_perVeh="0.00"/>
        <edge id="337277984#7" sampledSeconds="322.45" CO_abs="2043.79" CO2_abs="534959.78" HC_abs="13.71" PMx_abs="64.04" NOx_abs="188.82" fuel_abs="173428.27" electricity_abs="0.00"
            CO_normed="110.33" CO2_normed="28877.72" HC_normed="0.74" PMx_normed="3.46" NOx_normed="10.19" fuel_normed="9361.85" electricity_normed="0.00"
            traveltime="10.75" CO_perVeh="68.13" CO2_perVeh="17831.99" HC_perVeh="0.46" PMx_perVeh="2.13" NOx_perVeh="6.29" fuel_perVeh="5780.94" electricity_perVeh="0.00"/>
        <edge id="337277984#8" sampledSeconds="286.91" CO_abs="1987.14" CO2_abs="489362.70" HC_abs="13.31" PMx_abs="57.84" NOx_abs="173.04" fuel_abs="158646.09" electricity_abs="0.00"
            CO_normed="75.27" CO2_normed="18535.30" HC_normed="0.50" PMx_normed="2.19" NOx_normed="6.55" fuel_normed="6008.94" electricity_normed="0.00"
            traveltime="15.10" CO_perVeh="104.59" CO2_perVeh="25755.93" HC_perVeh="0.70" PMx_perVeh="3.04" NOx_perVeh="9.11" fuel_perVeh="8349.79" electricity_perVeh="0.00"/>
        <edge id="40668087#0" sampledSeconds="268.97" CO_abs="1432.77" CO2_abs="616656.22" HC_abs="9.50" PMx_abs="40.32" NOx_abs="189.38" fuel_abs="199910.16" electricity_abs="0.00"
            CO_normed="76.22" CO2_normed="32803.77" HC_normed="0.51" PMx_normed="2.14" NOx_normed="10.07" fuel_normed="10634.46" electricity_normed="0.00"
            traveltime="16.16" CO_perVeh="86.06" CO2_perVeh="37038.38" HC_perVeh="0.57" PMx_perVeh="2.42" NOx_perVeh="11.37" fuel_perVeh="12007.26" electricity_perVeh="0.00"/>
        <edge id="40668087#1" sampledSeconds="402.84" CO_abs="1608.15" CO2_abs="699752.90" HC_abs="10.70" PMx_abs="57.25" NOx_abs="230.06" fuel_abs="226850.84" electricity_abs="0.00"
            CO_normed="79.76" CO2_normed="34707.10" HC_normed="0.53" PMx_normed="2.84" NOx_normed="11.41" fuel_normed="11251.59" electricity_normed="0.00"
            traveltime="16.28" CO_perVeh="64.99" CO2_perVeh="28280.81" HC_perVeh="0.43" PMx_perVeh="2.31" NOx_perVeh="9.30" fuel_perVeh="9168.27" electricity_perVeh="0.00"/>
        <edge id="40668087#2" sampledSeconds="590.66" CO_abs="2504.81" CO2_abs="1074373.98" HC_abs="16.64" PMx_abs="82.98" NOx_abs="349.04" fuel_abs="348297.64" electricity_abs="0.00"
            CO_normed="132.82" CO2_normed="56970.78" HC_normed="0.88" PMx_normed="4.40" NOx_normed="18.51" fuel_normed="18469.16" electricity_normed="0.00"
            traveltime="15.57" CO_perVeh="66.05" CO2_perVeh="28329.90" HC_perVeh="0.44" PMx_perVeh="2.19" NOx_perVeh="9.20" fuel_perVeh="9184.17" electricity_perVeh="0.00"/>
        <edge id="40668087#3" sampledSeconds="2193.13" CO_abs="3535.88" CO2_abs="3600720.32" HC_abs="23.42" PMx_abs="99.79" NOx_abs="1312.35" fuel_abs="1167318.95" electricity_abs="0.00"
            CO_normed="200.73" CO2_normed="204412.17" HC_normed="1.33" PMx_normed="5.67" NOx_normed="74.50" fuel_normed="66268.46" electricity_normed="0.00"
            traveltime="43.85" CO_perVeh="70.69" CO2_perVeh="71988.23" HC_perVeh="0.47" PMx_perVeh="2.00" NOx_perVeh="26.24" fuel_perVeh="23337.89" electricity_perVeh="0.00"/>
        <edge id="40668087#4" sampledSeconds="4510.03" CO_abs="6948.07" CO2_abs="7409868.68" HC_abs="45.91" PMx_abs="171.58" NOx_abs="2688.94" fuel_abs="2402207.47" electricity_abs="0.00"
            CO_normed="405.14" CO2_normed="432062.31" HC_normed="2.68" PMx_normed="10.00" NOx_normed="156.79" fuel_normed="140070.41" electricity_normed="0.00"
            traveltime="50.21" CO_perVeh="77.35" CO2_perVeh="82495.66" HC_perVeh="0.51" PMx_perVeh="1.91" NOx_perVeh="29.94" fuel_perVeh="26744.29" electricity_perVeh="0.00"/>
        <edge id="40668087#5" sampledSeconds="2271.46" CO_abs="4490.83" CO2_abs="3843076.58" HC_abs="29.70" PMx_abs="116.85" NOx_abs="1371.28" fuel_abs="1245885.39" electricity_abs="0.00"
            CO_normed="318.57" CO2_normed="272623.07" HC_normed="2.11" PMx_normed="8.29" NOx_normed="97.28" fuel_normed="88381.56" electricity_normed="0.00"
            traveltime="31.73" CO_perVeh="62.74" CO2_perVeh="53688.95" HC_perVeh="0.41" PMx_perVeh="1.63" NOx_perVeh="19.16" fuel_perVeh="17405.40" electricity_perVeh="0.00"/>
        <edge id="40668087#6" sampledSeconds="292.38" CO_abs="478.66" CO2_abs="477029.26" HC_abs="3.16" PMx_abs="11.36" NOx_abs="176.85" fuel_abs="154648.61" electricity_abs="0.00"
            CO_normed="325.99" CO2_normed="324878.05" HC_normed="2.15" PMx_normed="7.74" NOx_normed="120.44" fuel_normed="105322.55" electricity_normed="0.00"
            traveltime="4.31" CO_perVeh="7.06" CO2_perVeh="7031.45" HC_perVeh="0.05" PMx_perVeh="0.17" NOx_perVeh="2.61" fuel_perVeh="2279.53" electricity_perVeh="0.00"/>
        <edge id="42141326#0" sampledSeconds="547.96" CO_abs="5108.73" CO2_abs="1406019.62" HC_abs="33.94" PMx_abs="108.92" NOx_abs="447.60" fuel_abs="455810.22" electricity_abs="0.00"
            CO_normed="170.17" CO2_normed="46833.50" HC_normed="1.13" PMx_normed="3.63" NOx_normed="14.91" fuel_normed="15182.71" electricity_normed="0.00"
            traveltime="20.14" CO_perVeh="187.77" CO2_perVeh="51678.14" HC_perVeh="1.25" PMx_perVeh="4.00" NOx_perVeh="16.45" fuel_perVeh="16753.27" electricity_perVeh="0.00"/>
        <edge id="42141326#1" sampledSeconds="366.48" CO_abs="2587.99" CO2_abs="722736.76" HC_abs="17.27" PMx_abs="69.68" NOx_abs="241.60" fuel_abs="234301.87" electricity_abs="0.00"
            CO_normed="150.80" CO2_normed="42113.44" HC_normed="1.01" PMx_normed="4.06" NOx_normed="14.08" fuel_normed="13652.63" electricity_normed="0.00"
            traveltime="10.77" CO_perVeh="76.06" CO2_perVeh="21240.23" HC_perVeh="0.51" PMx_perVeh="2.05" NOx_perVeh="7.10" fuel_perVeh="6885.81" electricity_perVeh="0.00"/>
        <edge id="42141326#10" sampledSeconds="2259.86" CO_abs="9242.46" CO2_abs="4369020.45" HC_abs="61.18" PMx_abs="158.01" NOx_abs="1537.25" fuel_abs="1416386.38" electricity_abs="0.00"
            CO_normed="551.24" CO2_normed="260577.76" HC_normed="3.65" PMx_normed="9.42" NOx_normed="91.69" fuel_normed="84476.32" electricity_normed="0.00"
            traveltime="30.78" CO_perVeh="125.88" CO2_perVeh="59503.05" HC_perVeh="0.83" PMx_perVeh="2.15" NOx_perVeh="20.94" fuel_perVeh="19290.21" electricity_perVeh="0.00"/>
        <edge id="42141326#11" sampledSeconds="3940.71" CO_abs="13086.48" CO2_abs="7133361.44" HC_abs="86.64" PMx_abs="246.02" NOx_abs="2528.04" fuel_abs="2312557.35" electricity_abs="0.00"
            CO_normed="778.96" CO2_normed="424604.85" HC_normed="5.16" PMx_normed="14.64" NOx_normed="150.48" fuel_normed="137652.22" electricity_normed="0.00"
            traveltime="32.79" CO_perVeh="108.90" CO2_perVeh="59361.18" HC_perVeh="0.72" PMx_perVeh="2.05" NOx_perVeh="21.04" fuel_perVeh="19244.24" electricity_perVeh="0.00"/>
        <edge id="42141326#12" sampledSeconds="858.93" CO_abs="3136.34" CO2_abs="1518821.16" HC_abs="20.84" PMx_abs="64.77" NOx_abs="545.50" fuel_abs="492385.65" electricity_abs="0.00"
            CO_normed="205.32" CO2_normed="99431.83" HC_normed="1.36" PMx_normed="4.24" NOx_normed="35.71" fuel_normed="32234.74" electricity_normed="0.00"
            traveltime="23.98" CO_perVeh="87.54" CO2_perVeh="42394.80" HC_perVeh="0.58" PMx_perVeh="1.81" NOx_perVeh="15.23" fuel_perVeh="13743.94" electricity_perVeh="0.00"/>
        <edge id="42141326#13" sampledSeconds="219.11" CO_abs="2432.08" CO2_abs="552598.34" HC_abs="16.16" PMx_abs="48.44" NOx_abs="184.86" fuel_abs="179145.01" electricity_abs="0.00"
            CO_normed="137.15" CO2_normed="31161.56" HC_normed="0.91" PMx_normed="2.73" NOx_normed="10.42" fuel_normed="10102.16" electricity_normed="0.00"
            traveltime="10.93" CO_perVeh="121.35" CO2_perVeh="27572.83" HC_perVeh="0.81" PMx_perVeh="2.42" NOx_perVeh="9.22" fuel_perVeh="8938.74" electricity_perVeh="0.00"/>
        <edge id="42141326#14" sampledSeconds="100.40" CO_abs="760.55" CO2_abs="181206.62" HC_abs="5.09" PMx_abs="20.83" NOx_abs="64.11" fuel_abs="58745.19" electricity_abs="0.00"
            CO_normed="41.25" CO2_normed="9828.60" HC_normed="0.28" PMx_normed="1.13" NOx_normed="3.48" fuel_normed="3186.32" electricity_normed="0.00"
            traveltime="10.71" CO_perVeh="81.11" CO2_perVeh="19325.23" HC_perVeh="0.54" PMx_perVeh="2.22" NOx_perVeh="6.84" fuel_perVeh="6265.03" electricity_perVeh="0.00"/>
        <edge id="42141326#2" sampledSeconds="33.08" CO_abs="225.70" CO2_abs="60618.32" HC_abs="1.51" PMx_abs="6.92" NOx_abs="21.20" fuel_abs="19651.80" electricity_abs="0.00"
            CO_normed="136.38" CO2_normed="36627.38" HC_normed="0.91" PMx_normed="4.18" NOx_normed="12.81" fuel_normed="11874.20" electricity_normed="0.00"
            traveltime="0.99" CO_perVeh="6.76" CO2_perVeh="1814.52" HC_perVeh="0.05" PMx_perVeh="0.21" NOx_perVeh="0.63" fuel_perVeh="588.25" electricity_perVeh="0.00"/>
        <edge id="42141326#3" sampledSeconds="30.53" CO_abs="132.75" CO2_abs="44429.09" HC_abs="0.89" PMx_abs="4.30" NOx_abs="14.66" fuel_abs="14403.29" electricity_abs="0.00"
            CO_normed="96.31" CO2_normed="32233.92" HC_normed="0.65" PMx_normed="3.12" NOx_normed="10.63" fuel_normed="10449.79" electricity_normed="0.00"
            traveltime="0.90" CO_perVeh="3.93" CO2_perVeh="1315.77" HC_perVeh="0.03" PMx_perVeh="0.13" NOx_perVeh="0.43" fuel_perVeh="426.55" electricity_perVeh="0.00"/>
        <edge id="42141326#4" sampledSeconds="517.61" CO_abs="4167.50" CO2_abs="1147123.07" HC_abs="27.77" PMx_abs="104.39" NOx_abs="378.21" fuel_abs="371881.69" electricity_abs="0.00"
            CO_normed="243.97" CO2_normed="67155.22" HC_normed="1.63" PMx_normed="6.11" NOx_normed="22.14" fuel_normed="21770.81" electricity_normed="0.00"
            traveltime="10.88" CO_perVeh="87.61" CO2_perVeh="24113.90" HC_perVeh="0.58" PMx_perVeh="2.19" NOx_perVeh="7.95" fuel_perVeh="7817.40" electricity_perVeh="0.00"/>
        <edge id="42141326#5" sampledSeconds="728.01" CO_abs="5860.91" CO2_abs="1546482.89" HC_abs="39.03" PMx_abs="139.61" NOx_abs="512.02" fuel_abs="501348.80" electricity_abs="0.00"
            CO_normed="320.77" CO2_normed="84638.30" HC_normed="2.14" PMx_normed="7.64" NOx_normed="28.02" fuel_normed="27438.59" electricity_normed="0.00"
            traveltime="11.64" CO_perVeh="93.72" CO2_perVeh="24729.60" HC_perVeh="0.62" PMx_perVeh="2.23" NOx_perVeh="8.19" fuel_perVeh="8017.00" electricity_perVeh="0.00"/>
        <edge id="42141326#6" sampledSeconds="37.50" CO_abs="272.06" CO2_abs="68209.09" HC_abs="1.82" PMx_abs="7.10" NOx_abs="23.54" fuel_abs="22112.59" electricity_abs="0.00"
            CO_normed="268.92" CO2_normed="67422.50" HC_normed="1.79" PMx_normed="7.02" NOx_normed="23.27" fuel_normed="21857.58" electricity_normed="0.00"
            traveltime="0.63" CO_perVeh="4.53" CO2_perVeh="1136.82" HC_perVeh="0.03" PMx_perVeh="0.12" NOx_perVeh="0.39" fuel_perVeh="368.54" electricity_perVeh="0.00"/>
        <edge id="42141326#7" sampledSeconds="36.95" CO_abs="246.56" CO2_abs="64962.52" HC_abs="1.64" PMx_abs="6.62" NOx_abs="22.17" fuel_abs="21060.07" electricity_abs="0.00"
            CO_normed="247.38" CO2_normed="65179.78" HC_normed="1.65" PMx_normed="6.64" NOx_normed="22.25" fuel_normed="21130.50" electricity_normed="0.00"
            traveltime="0.62" CO_perVeh="4.11" CO2_perVeh="1082.71" HC_perVeh="0.03" PMx_perVeh="0.11" NOx_perVeh="0.37" fuel_perVeh="351.00" electricity_perVeh="0.00"/>
        <edge id="42141326#8" sampledSeconds="757.00" CO_abs="3782.55" CO2_abs="1410101.36" HC_abs="25.15" PMx_abs="88.38" NOx_abs="477.54" fuel_abs="457136.68" electricity_abs="0.00"
            CO_normed="347.82" CO2_normed="129664.49" HC_normed="2.31" PMx_normed="8.13" NOx_normed="43.91" fuel_normed="42035.56" electricity_normed="0.00"